14
	Energy:      20.6187995
C         -2.36971        0.92220        0.14812
C         -1.32791        1.76151        0.10304
H         -2.21519       -0.15382        0.16704
H         -3.40098        1.26393        0.16774
C         -1.49662        3.19626        0.07684
H         -0.33506        1.32329        0.08648
C         -0.54816        4.14362        0.03189
H         -2.53470        3.53872        0.09663
C          0.89622        3.86119        0.00022
H         -0.86832        5.18354        0.01808
N          1.78303        4.78443       -0.04254
H          1.24748        2.81947        0.01321
H          1.54091        5.77555       -0.05729
H          2.77961        4.56219       -0.06381
