4
	Energy:       0.0541621
C         -0.94529        3.30020        0.00000
O          0.27182        3.43574        0.00000
H         -1.44071        2.43937        0.47673
H         -1.61795        4.03095       -0.47673
